
    -----------------------------------------------------------------------
          Psi4: An Open-Source Ab Initio Electronic Structure Package
                               Psi4 1.2rc3.dev135 

                         Git: Rev {master} b0b8cd1 


    R. M. Parrish, L. A. Burns, D. G. A. Smith, A. C. Simmonett,
    A. E. DePrince III, E. G. Hohenstein, U. Bozkaya, A. Yu. Sokolov,
    R. Di Remigio, R. M. Richard, J. F. Gonthier, A. M. James,
    H. R. McAlexander, A. Kumar, M. Saitow, X. Wang, B. P. Pritchard,
    P. Verma, H. F. Schaefer III, K. Patkowski, R. A. King, E. F. Valeev,
    F. A. Evangelista, J. M. Turney, T. D. Crawford, and C. D. Sherrill,
    J. Chem. Theory Comput. 13(7) pp 3185--3197 (2017).
    (doi: 10.1021/acs.jctc.7b00174)


                         Additional Contributions by
    P. Kraus, H. Kruse, M. H. Lechner, M. C. Schieber, and R. A. Shaw

    -----------------------------------------------------------------------


    Psi4 started on: Wednesday, 19 June 2019 11:01PM

    Process ID: 57607
    Host:       medusa
    PSIDATADIR: /home/adutoi/programs/miniconda3/envs/Psi4/share/psi4
    Memory:     500.0 MiB
    Threads:    1
    
  ==> Input File <==

--------------------------------------------------------------------------
memory 10 Gb
molecule be2 {
0 1
Be  0.0  0.0  0.0
Be  0.0  0.0  4.5
units angstrom
}

basis {
assign custombasis
[custombasis]
cartesian
Be     0
S   6   1.00
      0.1264585690e+04       0.1944757590e-02
      0.1899368060e+03       0.1483505200e-01
      0.4315908900e+02       0.7209054629e-01
      0.1209866270e+02       0.2371541500e+00
      0.3806323220e+01       0.4691986519e+00
      0.1272890300e+01       0.3565202279e+00
S    3   1.00
      0.3196463098e+01      -0.1126487285e+00       0.5598019980e-01
      0.7478133038e+00      -0.2295064079e+00       0.2615506110e+00
      0.2199663302e+00       0.1186916764e+01       0.7939723389e+00
S    1   1.00
      0.8230990070e-01       0.1000000000e+01       0.1000000000e+01
****
}

set freeze_core False
set PRINT_BASIS True
set PUREAM False
set E_CONVERGENCE 1e-14
energy('fci')

--------------------------------------------------------------------------

  Memory set to   9.313 GiB by Python driver.

*** tstart() called on medusa
*** at Wed Jun 19 23:01:04 2019

   => Loading Basis Set <=

    Name: ANONYMOUSB94F1CD9
    Role: ORBITAL
    Keyword: BASIS
    atoms 1-2 entry BE         line     4 inputblock custombasis 


         ---------------------------------------------------------
                                   SCF
            by Justin Turney, Rob Parrish, Andy Simmonett
                             and Daniel Smith
                              RHF Reference
                        1 Threads,   9536 MiB Core
         ---------------------------------------------------------

  ==> Geometry <==

    Molecular point group: d2h
    Full point group: D_inf_h

    Geometry (in Angstrom), charge = 0, multiplicity = 1:

       Center              X                  Y                   Z               Mass       
    ------------   -----------------  -----------------  -----------------  -----------------
         BE           0.000000000000     0.000000000000    -2.250000000000     9.012182201000
         BE           0.000000000000     0.000000000000     2.250000000000     9.012182201000

  Running in d2h symmetry.

  Rotational constants: A = ************  B =      0.18474  C =      0.18474 [cm^-1]
  Rotational constants: A = ************  B =   5538.50052  C =   5538.50052 [MHz]
  Nuclear repulsion =    1.881518963875555

  Charge       = 0
  Multiplicity = 1
  Electrons    = 8
  Nalpha       = 4
  Nbeta        = 4

  ==> Algorithm <==

  SCF Algorithm Type is PK.
  DIIS enabled.
  MOM disabled.
  Fractional occupation disabled.
  Guess Type is SAD.
  Energy threshold   = 1.00e-14
  Density threshold  = 1.00e-08
  Integral threshold = 0.00e+00

  ==> Primary Basis <==

  Basis Set: ANONYMOUSB94F1CD9
    Blend: CUSTOMBASIS
    Number of shells: 6
    Number of basis function: 6
    Number of Cartesian functions: 6
    Spherical Harmonics?: false
    Max angular momentum: 0

  -AO BASIS SET INFORMATION:
    Name                   = ANONYMOUSB94F1CD9
    Blend                  = CUSTOMBASIS
    Total number of shells = 6
    Number of primitives   = 20
    Number of AO           = 6
    Number of SO           = 6
    Maximum AM             = 0
    Spherical Harmonics    = FALSE

  -Contraction Scheme:
    Atom   Type   All Primitives // Shells:
   ------ ------ --------------------------
       1    BE     10s // 3s 
       2    BE     10s // 3s 

  ==> AO Basis Functions <==

    [ ANONYMOUSB94F1CD9 ]
    cartesian
    ****
   BE   1
    S   6 1.00
                      1264.58569000           0.00194476
                       189.93680600           0.01483505
                        43.15908900           0.07209055
                        12.09866270           0.23715415
                         3.80632322           0.46919865
                         1.27289030           0.35652023
    S   3 1.00
                         3.19646310          -0.11264873
                         0.74781330          -0.22950641
                         0.21996633           1.18691676
    S   1 1.00
                         0.08230990           1.00000000
    ****

  ==> Pre-Iterations <==

   -------------------------------------------------------
    Irrep   Nso     Nmo     Nalpha   Nbeta   Ndocc  Nsocc
   -------------------------------------------------------
     Ag         3       3       0       0       0       0
     B1g        0       0       0       0       0       0
     B2g        0       0       0       0       0       0
     B3g        0       0       0       0       0       0
     Au         0       0       0       0       0       0
     B1u        3       3       0       0       0       0
     B2u        0       0       0       0       0       0
     B3u        0       0       0       0       0       0
   -------------------------------------------------------
    Total       6       6       4       4       4       0
   -------------------------------------------------------

  ==> Integral Setup <==

  Using in-core PK algorithm.
   Calculation information:
      Number of atoms:                   2
      Number of AO shells:               6
      Number of primitives:             20
      Number of atomic orbitals:         6
      Number of basis functions:         6

      Integral cutoff                 1.00e-12
      Number of threads:                 1

  Performing in-core PK
  Using 462 doubles for integral storage.
  We computed 207 shell quartets total.
  Whereas there are 231 unique shell quartets.

  ==> DiskJK: Disk-Based J/K Matrices <==

    J tasked:                  Yes
    K tasked:                  Yes
    wK tasked:                  No
    Memory (MB):              7152
    Schwarz Cutoff:          1E-12

    OpenMP threads:              1

  Minimum eigenvalue in the overlap matrix is 1.1487137398E-01.
  Using Symmetric Orthogonalization.

  SCF Guess: Superposition of Atomic Densities via on-the-fly atomic UHF.

  ==> Iterations <==

                        Total Energy        Delta E     RMS |[F,P]|

   @RHF iter   0:   -29.13443194299050   -2.91344e+01   1.38980e-03 
   @RHF iter   1:   -29.13310584924596    1.32609e-03   1.67620e-04 
   @RHF iter   2:   -29.13310662167154   -7.72426e-07   2.56851e-05 DIIS
   @RHF iter   3:   -29.13310664025787   -1.85863e-08   1.94775e-07 DIIS
   @RHF iter   4:   -29.13310664025899   -1.11555e-12   2.96800e-08 DIIS
   @RHF iter   5:   -29.13310664025903   -4.26326e-14   1.84378e-11 DIIS
   @RHF iter   6:   -29.13310664025902    1.42109e-14   1.25104e-12 DIIS
   @RHF iter   7:   -29.13310664025903   -1.06581e-14   1.61036e-15 DIIS
   @RHF iter   8:   -29.13310664025903   -7.10543e-15   1.98283e-15 DIIS

  ==> Post-Iterations <==

    Orbital Energies [Eh]
    ---------------------

    Doubly Occupied:                                                      

       1B1u   -4.706483     1Ag    -4.706481     2Ag    -0.308868  
       2B1u   -0.293631  

    Virtual:                                                              

       3Ag     0.414030     3B1u    0.473830  

    Final Occupation by Irrep:
             Ag   B1g   B2g   B3g    Au   B1u   B2u   B3u 
    DOCC [     2,    0,    0,    0,    0,    2,    0,    0 ]

  Energy converged.

  @RHF Final Energy:   -29.13310664025903

   => Energetics <=

    Nuclear Repulsion Energy =              1.8815189638755554
    One-Electron Energy =                 -41.9983248898920039
    Two-Electron Energy =                  10.9836992857574138
    Total Energy =                        -29.1331066402590331



Properties will be evaluated at   0.000000,   0.000000,   0.000000 [a0]

Properties computed using the SCF density matrix

  Nuclear Dipole Moment: [e a0]
     X:     0.0000      Y:     0.0000      Z:     0.0000

  Electronic Dipole Moment: [e a0]
     X:     0.0000      Y:     0.0000      Z:     0.0000

  Dipole Moment: [e a0]
     X:     0.0000      Y:     0.0000      Z:     0.0000     Total:     0.0000

  Dipole Moment: [D]
     X:     0.0000      Y:     0.0000      Z:     0.0000     Total:     0.0000


*** tstop() called on medusa at Wed Jun 19 23:01:04 2019
Module time:
	user time   =       0.41 seconds =       0.01 minutes
	system time =       0.02 seconds =       0.00 minutes
	total time  =          0 seconds =       0.00 minutes
Total time:
	user time   =       0.41 seconds =       0.01 minutes
	system time =       0.02 seconds =       0.00 minutes
	total time  =          0 seconds =       0.00 minutes
 MINTS: Wrapper to libmints.
   by Justin Turney

   Calculation information:
      Number of threads:                 1
      Number of atoms:                   2
      Number of AO shells:               6
      Number of SO shells:               3
      Number of primitives:             20
      Number of atomic orbitals:         6
      Number of basis functions:         6

      Number of irreps:                  8
      Integral cutoff                 0.00e+00
      Number of functions per irrep: [   3    0    0    0    0    3    0    0 ]

 OEINTS: Overlap, kinetic, potential, dipole, and quadrupole integrals
         stored in file 35.

      Computing two-electron integrals...done
      Computed 123 non-zero two-electron integrals.
        Stored in file 33.


         ---------------------------------------------------------
                          Configuration Interaction
                            (a 'D E T C I' module)

                 C. David Sherrill, Daniel G. A. Smith, and
                              Matt L. Leininger
         ---------------------------------------------------------


   ==> Parameters <==

    EX LEVEL       =        8      H0 BLOCKSIZE  =     1000
    VAL EX LEVEL   =        0      H0 GUESS SIZE =     1000
    H0COUPLINGSIZE =        0      H0 COUPLING   =       NO
    MAXITER        =       24      NUM PRINT     =       20
    NUM ROOTS      =        1      ICORE         =        1
    PRINT LVL      =        1      FCI           =      YES
    R CONV         = 1.00e-04      MIXED         =      YES
    E CONV         = 1.00e-14      MIXED4        =      YES
    R4S            =       NO      REPL OTF      =       NO
    DIAG METHOD    =      SEM      FOLLOW ROOT   =        0
    PRECONDITIONER = DAVIDSON      UPDATE        = DAVIDSON
    S              =   0.0000      Ms0           =      YES
    GUESS VECTOR   =  H0BLOCK      OPENTYPE      =     NONE
    COLLAPSE SIZE  =        1      HD AVG        = EVANGELISTI
    MAX NUM VECS   =       25      REF SYM       =     AUTO
    IOPEN        =       NO

    EX ALLOW       =  1  1  1  1  1  1  1  1 
    STATE AVERAGE  =  0(1.00) 

   ==> CI Orbital and Space information <==

   ------------------------------------------------------------------------------
               Space    Total    Ag   B1g   B2g   B3g    Au   B1u   B2u   B3u
   ------------------------------------------------------------------------------
                 Nso        6     3     0     0     0     0     3     0     0
                 Nmo        6     3     0     0     0     0     3     0     0
               Ndocc        4     2     0     0     0     0     2     0     0
               Nsocc        0     0     0     0     0     0     0     0     0
   ------------------------------------------------------------------------------
                                   CI Spaces
   ------------------------------------------------------------------------------
        Dropped DOCC        0     0     0     0     0     0     0     0     0
              Active        6     3     0     0     0     0     3     0     0
        Dropped UOCC        0     0     0     0     0     0     0     0     0
   ------------------------------------------------------------------------------

   ==> Setting up CI strings <==

    There are 15 alpha and 15 beta strings
    The CI space requires 117 (1.17E+02) determinants and 2 blocks

   ==> Transforming CI integrals <==

	Presorting SO-basis two-electron integrals.
	Sorting File: SO Ints (nn|nn) nbuckets = 1
	Transforming the one-electron integrals and constructing Fock matrices
	Starting first half-transformation.
	Sorting half-transformed integrals.
	First half integral transformation complete.
	Starting second half-transformation.
	Two-electron integral transformation complete.

   ==> Starting CI iterations <==

    H0 Block Eigenvalue = -29.13779584

    Simultaneous Expansion Method (Block Davidson Method)
    Using 1 initial trial vectors

     Iter   Root       Total Energy       Delta E      C RMS

   @CI  0:     0    -29.137795837795   -3.1019E+01   1.6675E-13  
    Warning: Norm of correction (root 0) is < 1.0E-13
   @CI  1:     0    -29.137795837795   0.0000E+00   2.6052E-12 c

   ==> Energetics <==

    SCF energy =          -29.133106640259033
    Total CI energy =     -29.137795837795093

   ==> FCI root 0 information <==

    FCI Root 0 energy =   -29.137795837795093

   The 20 most important determinants:

    *   1    0.997663  (    0,    0)  1AgX 2AgX 1B1uX 2B1uX 
    *   2   -0.028033  (    9,    9)  1AgX 2AgX 1B1uX 3AgX 
    *   3   -0.025449  (    1,    1)  1AgX 1B1uX 2B1uX 3AgX 
    *   4    0.023877  (    9,   11)  1AgX 2AgA 1B1uX 2B1uB 3AgA 3B1uB 
    *   5    0.023877  (   11,    9)  1AgX 2AgB 1B1uX 2B1uA 3AgB 3B1uA 
    *   6    0.023669  (    1,    3)  1AgX 2AgB 1B1uX 2B1uA 3AgA 3B1uB 
    *   7    0.023669  (    3,    1)  1AgX 2AgA 1B1uX 2B1uB 3AgB 3B1uA 
    *   8   -0.022895  (    3,    3)  1AgX 2AgX 1B1uX 3B1uX 
    *   9   -0.020522  (   11,   11)  1AgX 1B1uX 2B1uX 3B1uX 
    *  10    0.002295  (    5,    5)  1AgX 1B1uX 3AgX 3B1uX 
    *  11   -0.002198  (    0,    1)  1AgX 2AgA 1B1uX 2B1uX 3AgB 
    *  12   -0.002198  (    1,    0)  1AgX 2AgB 1B1uX 2B1uX 3AgA 
    *  13    0.001490  (    0,    3)  1AgX 2AgX 1B1uX 2B1uA 3B1uB 
    *  14    0.001490  (    3,    0)  1AgX 2AgX 1B1uX 2B1uB 3B1uA 
    *  15   -0.000889  (   10,   10)  1AgX 2AgX 2B1uX 3AgX 
    *  16   -0.000889  (    2,    2)  2AgX 1B1uX 2B1uX 3AgX 
    *  17    0.000852  (   10,   12)  1AgA 2AgX 1B1uB 2B1uX 3AgA 3B1uB 
    *  18    0.000852  (   12,   10)  1AgB 2AgX 1B1uA 2B1uX 3AgB 3B1uA 
    *  19    0.000852  (    2,    4)  1AgB 2AgX 1B1uA 2B1uX 3AgA 3B1uB 
    *  20    0.000852  (    4,    2)  1AgA 2AgX 1B1uB 2B1uX 3AgB 3B1uA 

		 "A good bug is a dead bug" 

			 - Starship Troopers

		 "I didn't write FORTRAN.  That's the problem."

			 - Edward Valeev

    Psi4 stopped on: Wednesday, 19 June 2019 11:01PM
    Psi4 wall time for execution: 0:00:00.52

*** Psi4 exiting successfully. Buy a developer a beer!
