
Host: marcovm

Timers On : Mon May  6 22:36:49 2024
Timers Off: Mon May  6 22:36:53 2024

Wall Time:        4.62 seconds

                                                       Time (seconds)
Module                                       User      System        Wall        Calls

--------------------------------------------------------------------------------------

**************************************************************************************

Host: marcovm

Timers On : Mon May  6 22:38:48 2024
Timers Off: Mon May  6 22:38:50 2024

Wall Time:        1.81 seconds

                                                       Time (seconds)
Module                                       User      System        Wall        Calls

--------------------------------------------------------------------------------------

**************************************************************************************

Host: marcovm

Timers On : Mon May  6 22:45:49 2024
Timers Off: Mon May  6 22:45:49 2024

Wall Time:        0.48 seconds

                                                       Time (seconds)
Module                                       User      System        Wall        Calls

--------------------------------------------------------------------------------------

**************************************************************************************

Host: marcovm

Timers On : Mon May  6 22:46:17 2024
Timers Off: Mon May  6 22:46:18 2024

Wall Time:        0.49 seconds

                                                       Time (seconds)
Module                                       User      System        Wall        Calls

--------------------------------------------------------------------------------------

**************************************************************************************

Host: marcovm

Timers On : Mon May  6 22:46:59 2024
Timers Off: Mon May  6 22:46:59 2024

Wall Time:        0.50 seconds

                                                       Time (seconds)
Module                                       User      System        Wall        Calls

--------------------------------------------------------------------------------------

**************************************************************************************

Host: marcovm

Timers On : Mon May  6 22:47:59 2024
Timers Off: Mon May  6 22:48:00 2024

Wall Time:        0.48 seconds

                                                       Time (seconds)
Module                                       User      System        Wall        Calls

--------------------------------------------------------------------------------------

**************************************************************************************

Host: marcovm

Timers On : Mon May  6 22:48:59 2024
Timers Off: Mon May  6 22:48:59 2024

Wall Time:        0.49 seconds

                                                       Time (seconds)
Module                                       User      System        Wall        Calls

--------------------------------------------------------------------------------------

**************************************************************************************

Host: marcovm

Timers On : Tue May  7 00:09:29 2024
Timers Off: Tue May  7 00:09:29 2024

Wall Time:        0.65 seconds

                                                       Time (seconds)
Module                                       User      System        Wall        Calls
Total PK formation time             :      0.000u      0.017s      0.007w      1 calls
Libint2ERI::Libint2ERI              :      0.000u      0.000s      0.003w      2 calls
HF: Form core H                     :      0.000u      0.000s      0.001w      1 calls
HF: Form S/X                        :      0.000u      0.000s      0.000w      1 calls
HF: Guess                           :      0.000u      0.000s      0.000w      1 calls
HF: Form G                          :      0.000u      0.000s      0.000w      5 calls
JK: D                               :      0.000u      0.000s      0.000w      5 calls
JK: USO2AO                          :      0.000u      0.000s      0.000w      5 calls
JK: JK                              :      0.000u      0.000s      0.000w      5 calls
PK computes JK                      :      0.000u      0.000s      0.000w      5 calls
JK: AO2USO                          :      0.000u      0.000s      0.000w      5 calls
HF: Form F                          :      0.000u      0.000s      0.000w      5 calls
HF: DIIS                            :      0.017u      0.000s      0.013w      5 calls
HF: Form C                          :      0.000u      0.000s      0.001w      5 calls
HF: Form D                          :      0.000u      0.000s      0.000w      5 calls

--------------------------------------------------------------------------------------
Total PK formation time             :      0.000u      0.017s      0.007w      1 calls
| Libint2ERI::Libint2ERI            :      0.000u      0.000s      0.003w      2 calls
HF: Form core H                     :      0.000u      0.000s      0.001w      1 calls
HF: Form S/X                        :      0.000u      0.000s      0.000w      1 calls
HF: Guess                           :      0.000u      0.000s      0.000w      1 calls
HF: Form G                          :      0.000u      0.000s      0.000w      5 calls
| JK: D                             :      0.000u      0.000s      0.000w      5 calls
| JK: USO2AO                        :      0.000u      0.000s      0.000w      5 calls
| JK: JK                            :      0.000u      0.000s      0.000w      5 calls
| | PK computes JK                  :      0.000u      0.000s      0.000w      5 calls
| JK: AO2USO                        :      0.000u      0.000s      0.000w      5 calls
HF: Form F                          :      0.000u      0.000s      0.000w      5 calls
HF: DIIS                            :      0.017u      0.000s      0.013w      5 calls
HF: Form C                          :      0.000u      0.000s      0.001w      5 calls
HF: Form D                          :      0.000u      0.000s      0.000w      5 calls

**************************************************************************************

Host: marcovm

Timers On : Tue May  7 00:16:33 2024
Timers Off: Tue May  7 00:16:44 2024

Wall Time:       11.06 seconds

                                                       Time (seconds)
Module                                       User      System        Wall        Calls
Total PK formation time             :      0.000u      0.000s      0.012w      2 calls
Libint2ERI::Libint2ERI              :      0.000u      0.000s      0.014w     13 calls
HF: Form core H                     :      0.000u      0.000s      0.001w      2 calls
HF: Form S/X                        :      0.000u      0.000s      0.000w      2 calls
HF: Guess                           :      0.000u      0.000s      0.000w      2 calls
HF: Form G                          :      0.000u      0.000s      0.000w     10 calls
JK: D                               :      0.000u      0.000s      0.000w     10 calls
JK: USO2AO                          :      0.000u      0.000s      0.000w     10 calls
JK: JK                              :      0.000u      0.000s      0.000w     10 calls
PK computes JK                      :      0.000u      0.000s      0.000w     10 calls
JK: AO2USO                          :      0.000u      0.000s      0.000w     10 calls
HF: Form F                          :      0.000u      0.000s      0.000w     10 calls
HF: DIIS                            :      0.050u      0.000s      0.027w     10 calls
HF: Form C                          :      0.000u      0.000s      0.002w     10 calls
HF: Form D                          :      0.000u      0.000s      0.000w     10 calls

--------------------------------------------------------------------------------------
Total PK formation time             :      0.000u      0.000s      0.012w      2 calls
| Libint2ERI::Libint2ERI            :      0.000u      0.000s      0.004w      4 calls
HF: Form core H                     :      0.000u      0.000s      0.001w      2 calls
HF: Form S/X                        :      0.000u      0.000s      0.000w      2 calls
HF: Guess                           :      0.000u      0.000s      0.000w      2 calls
HF: Form G                          :      0.000u      0.000s      0.000w     10 calls
| JK: D                             :      0.000u      0.000s      0.000w     10 calls
| JK: USO2AO                        :      0.000u      0.000s      0.000w     10 calls
| JK: JK                            :      0.000u      0.000s      0.000w     10 calls
| | PK computes JK                  :      0.000u      0.000s      0.000w     10 calls
| JK: AO2USO                        :      0.000u      0.000s      0.000w     10 calls
HF: Form F                          :      0.000u      0.000s      0.000w     10 calls
HF: DIIS                            :      0.050u      0.000s      0.027w     10 calls
HF: Form C                          :      0.000u      0.000s      0.002w     10 calls
HF: Form D                          :      0.000u      0.000s      0.000w     10 calls
Libint2ERI::Libint2ERI              :      0.000u      0.000s      0.010w      9 calls

**************************************************************************************

Host: marcovm

Timers On : Tue May  7 00:19:44 2024
Timers Off: Tue May  7 00:19:54 2024

Wall Time:       10.83 seconds

                                                       Time (seconds)
Module                                       User      System        Wall        Calls
Total PK formation time             :      0.017u      0.000s      0.013w      2 calls
Libint2ERI::Libint2ERI              :      0.050u      0.000s      0.020w     13 calls
HF: Form core H                     :      0.000u      0.000s      0.001w      2 calls
HF: Form S/X                        :      0.000u      0.000s      0.000w      2 calls
HF: Guess                           :      0.000u      0.000s      0.000w      2 calls
HF: Form G                          :      0.000u      0.000s      0.000w     10 calls
JK: D                               :      0.000u      0.000s      0.000w     10 calls
JK: USO2AO                          :      0.000u      0.000s      0.000w     10 calls
JK: JK                              :      0.000u      0.000s      0.000w     10 calls
PK computes JK                      :      0.000u      0.000s      0.000w     10 calls
JK: AO2USO                          :      0.000u      0.000s      0.000w     10 calls
HF: Form F                          :      0.017u      0.000s      0.000w     10 calls
HF: DIIS                            :      0.033u      0.000s      0.029w     10 calls
HF: Form C                          :      0.000u      0.000s      0.002w     10 calls
HF: Form D                          :      0.000u      0.000s      0.000w     10 calls

--------------------------------------------------------------------------------------
Total PK formation time             :      0.017u      0.000s      0.013w      2 calls
| Libint2ERI::Libint2ERI            :      0.017u      0.000s      0.004w      4 calls
HF: Form core H                     :      0.000u      0.000s      0.001w      2 calls
HF: Form S/X                        :      0.000u      0.000s      0.000w      2 calls
HF: Guess                           :      0.000u      0.000s      0.000w      2 calls
HF: Form G                          :      0.000u      0.000s      0.000w     10 calls
| JK: D                             :      0.000u      0.000s      0.000w     10 calls
| JK: USO2AO                        :      0.000u      0.000s      0.000w     10 calls
| JK: JK                            :      0.000u      0.000s      0.000w     10 calls
| | PK computes JK                  :      0.000u      0.000s      0.000w     10 calls
| JK: AO2USO                        :      0.000u      0.000s      0.000w     10 calls
HF: Form F                          :      0.017u      0.000s      0.000w     10 calls
HF: DIIS                            :      0.033u      0.000s      0.029w     10 calls
HF: Form C                          :      0.000u      0.000s      0.002w     10 calls
HF: Form D                          :      0.000u      0.000s      0.000w     10 calls
Libint2ERI::Libint2ERI              :      0.033u      0.000s      0.016w      9 calls

**************************************************************************************

Host: marcovm

Timers On : Tue May  7 00:38:02 2024
Timers Off: Tue May  7 00:38:13 2024

Wall Time:       11.06 seconds

                                                       Time (seconds)
Module                                       User      System        Wall        Calls
Total PK formation time             :      0.033u      0.000s      0.013w      2 calls
Libint2ERI::Libint2ERI              :      0.050u      0.000s      0.023w     13 calls
HF: Form core H                     :      0.000u      0.000s      0.001w      2 calls
HF: Form S/X                        :      0.000u      0.000s      0.000w      2 calls
HF: Guess                           :      0.000u      0.000s      0.000w      2 calls
HF: Form G                          :      0.000u      0.000s      0.000w     10 calls
JK: D                               :      0.000u      0.000s      0.000w     10 calls
JK: USO2AO                          :      0.000u      0.000s      0.000w     10 calls
JK: JK                              :      0.000u      0.000s      0.000w     10 calls
PK computes JK                      :      0.000u      0.000s      0.000w     10 calls
JK: AO2USO                          :      0.000u      0.000s      0.000w     10 calls
HF: Form F                          :      0.000u      0.000s      0.000w     10 calls
HF: DIIS                            :      0.017u      0.000s      0.027w     10 calls
HF: Form C                          :      0.000u      0.000s      0.002w     10 calls
HF: Form D                          :      0.000u      0.000s      0.000w     10 calls

--------------------------------------------------------------------------------------
Total PK formation time             :      0.033u      0.000s      0.013w      2 calls
| Libint2ERI::Libint2ERI            :      0.017u      0.000s      0.004w      4 calls
HF: Form core H                     :      0.000u      0.000s      0.001w      2 calls
HF: Form S/X                        :      0.000u      0.000s      0.000w      2 calls
HF: Guess                           :      0.000u      0.000s      0.000w      2 calls
HF: Form G                          :      0.000u      0.000s      0.000w     10 calls
| JK: D                             :      0.000u      0.000s      0.000w     10 calls
| JK: USO2AO                        :      0.000u      0.000s      0.000w     10 calls
| JK: JK                            :      0.000u      0.000s      0.000w     10 calls
| | PK computes JK                  :      0.000u      0.000s      0.000w     10 calls
| JK: AO2USO                        :      0.000u      0.000s      0.000w     10 calls
HF: Form F                          :      0.000u      0.000s      0.000w     10 calls
HF: DIIS                            :      0.017u      0.000s      0.027w     10 calls
HF: Form C                          :      0.000u      0.000s      0.002w     10 calls
HF: Form D                          :      0.000u      0.000s      0.000w     10 calls
Libint2ERI::Libint2ERI              :      0.033u      0.000s      0.019w      9 calls

**************************************************************************************

Host: marcovm

Timers On : Tue May  7 00:38:47 2024
Timers Off: Tue May  7 00:39:15 2024

Wall Time:       27.23 seconds

                                                       Time (seconds)
Module                                       User      System        Wall        Calls
Total PK formation time             :      0.017u      0.000s      0.012w      2 calls
Libint2ERI::Libint2ERI              :      0.000u      0.000s      0.014w     13 calls
HF: Form core H                     :      0.000u      0.000s      0.001w      2 calls
HF: Form S/X                        :      0.000u      0.000s      0.000w      2 calls
HF: Guess                           :      0.000u      0.000s      0.000w      2 calls
HF: Form G                          :      0.000u      0.000s      0.000w     10 calls
JK: D                               :      0.000u      0.000s      0.000w     10 calls
JK: USO2AO                          :      0.000u      0.000s      0.000w     10 calls
JK: JK                              :      0.000u      0.000s      0.000w     10 calls
PK computes JK                      :      0.000u      0.000s      0.000w     10 calls
JK: AO2USO                          :      0.000u      0.000s      0.000w     10 calls
HF: Form F                          :      0.000u      0.000s      0.000w     10 calls
HF: DIIS                            :      0.017u      0.000s      0.027w     10 calls
HF: Form C                          :      0.000u      0.000s      0.002w     10 calls
HF: Form D                          :      0.000u      0.000s      0.000w     10 calls

--------------------------------------------------------------------------------------
Total PK formation time             :      0.017u      0.000s      0.012w      2 calls
| Libint2ERI::Libint2ERI            :      0.000u      0.000s      0.004w      4 calls
HF: Form core H                     :      0.000u      0.000s      0.001w      2 calls
HF: Form S/X                        :      0.000u      0.000s      0.000w      2 calls
HF: Guess                           :      0.000u      0.000s      0.000w      2 calls
HF: Form G                          :      0.000u      0.000s      0.000w     10 calls
| JK: D                             :      0.000u      0.000s      0.000w     10 calls
| JK: USO2AO                        :      0.000u      0.000s      0.000w     10 calls
| JK: JK                            :      0.000u      0.000s      0.000w     10 calls
| | PK computes JK                  :      0.000u      0.000s      0.000w     10 calls
| JK: AO2USO                        :      0.000u      0.000s      0.000w     10 calls
HF: Form F                          :      0.000u      0.000s      0.000w     10 calls
HF: DIIS                            :      0.017u      0.000s      0.027w     10 calls
HF: Form C                          :      0.000u      0.000s      0.002w     10 calls
HF: Form D                          :      0.000u      0.000s      0.000w     10 calls
Libint2ERI::Libint2ERI              :      0.000u      0.000s      0.010w      9 calls

**************************************************************************************

Host: marcovm

Timers On : Tue May  7 00:43:41 2024
Timers Off: Tue May  7 00:44:22 2024

Wall Time:       40.77 seconds

                                                       Time (seconds)
Module                                       User      System        Wall        Calls
Total PK formation time             :      0.000u      0.000s      0.013w      2 calls
Libint2ERI::Libint2ERI              :      0.000u      0.000s      0.015w     13 calls
HF: Form core H                     :      0.000u      0.000s      0.001w      2 calls
HF: Form S/X                        :      0.000u      0.000s      0.000w      2 calls
HF: Guess                           :      0.000u      0.000s      0.000w      2 calls
HF: Form G                          :      0.000u      0.000s      0.000w     10 calls
JK: D                               :      0.000u      0.000s      0.000w     10 calls
JK: USO2AO                          :      0.000u      0.000s      0.000w     10 calls
JK: JK                              :      0.000u      0.000s      0.000w     10 calls
PK computes JK                      :      0.000u      0.000s      0.000w     10 calls
JK: AO2USO                          :      0.000u      0.000s      0.000w     10 calls
HF: Form F                          :      0.000u      0.000s      0.000w     10 calls
HF: DIIS                            :      0.050u      0.000s      0.027w     10 calls
HF: Form C                          :      0.000u      0.000s      0.002w     10 calls
HF: Form D                          :      0.000u      0.000s      0.000w     10 calls

--------------------------------------------------------------------------------------
Total PK formation time             :      0.000u      0.000s      0.013w      2 calls
| Libint2ERI::Libint2ERI            :      0.000u      0.000s      0.004w      4 calls
HF: Form core H                     :      0.000u      0.000s      0.001w      2 calls
HF: Form S/X                        :      0.000u      0.000s      0.000w      2 calls
HF: Guess                           :      0.000u      0.000s      0.000w      2 calls
HF: Form G                          :      0.000u      0.000s      0.000w     10 calls
| JK: D                             :      0.000u      0.000s      0.000w     10 calls
| JK: USO2AO                        :      0.000u      0.000s      0.000w     10 calls
| JK: JK                            :      0.000u      0.000s      0.000w     10 calls
| | PK computes JK                  :      0.000u      0.000s      0.000w     10 calls
| JK: AO2USO                        :      0.000u      0.000s      0.000w     10 calls
HF: Form F                          :      0.000u      0.000s      0.000w     10 calls
HF: DIIS                            :      0.050u      0.000s      0.027w     10 calls
HF: Form C                          :      0.000u      0.000s      0.002w     10 calls
HF: Form D                          :      0.000u      0.000s      0.000w     10 calls
Libint2ERI::Libint2ERI              :      0.000u      0.000s      0.010w      9 calls

**************************************************************************************

Host: marcovm

Timers On : Tue May  7 00:59:39 2024
Timers Off: Tue May  7 01:00:20 2024

Wall Time:       40.81 seconds

                                                       Time (seconds)
Module                                       User      System        Wall        Calls
Total PK formation time             :      0.033u      0.017s      0.013w      2 calls
Libint2ERI::Libint2ERI              :      0.033u      0.017s      0.014w     13 calls
HF: Form core H                     :      0.067u      0.017s      0.014w      2 calls
HF: Form S/X                        :      0.000u      0.000s      0.000w      2 calls
HF: Guess                           :      0.000u      0.000s      0.000w      2 calls
HF: Form G                          :      0.000u      0.000s      0.000w     10 calls
JK: D                               :      0.000u      0.000s      0.000w     10 calls
JK: USO2AO                          :      0.000u      0.000s      0.000w     10 calls
JK: JK                              :      0.000u      0.000s      0.000w     10 calls
PK computes JK                      :      0.000u      0.000s      0.000w     10 calls
JK: AO2USO                          :      0.000u      0.000s      0.000w     10 calls
HF: Form F                          :      0.000u      0.000s      0.000w     10 calls
HF: DIIS                            :      0.117u      0.000s      0.031w     10 calls
HF: Form C                          :      0.050u      0.000s      0.008w     10 calls
HF: Form D                          :      0.000u      0.000s      0.000w     10 calls

--------------------------------------------------------------------------------------
Total PK formation time             :      0.033u      0.017s      0.013w      2 calls
| Libint2ERI::Libint2ERI            :      0.017u      0.017s      0.004w      4 calls
HF: Form core H                     :      0.067u      0.017s      0.014w      2 calls
HF: Form S/X                        :      0.000u      0.000s      0.000w      2 calls
HF: Guess                           :      0.000u      0.000s      0.000w      2 calls
HF: Form G                          :      0.000u      0.000s      0.000w     10 calls
| JK: D                             :      0.000u      0.000s      0.000w     10 calls
| JK: USO2AO                        :      0.000u      0.000s      0.000w     10 calls
| JK: JK                            :      0.000u      0.000s      0.000w     10 calls
| | PK computes JK                  :      0.000u      0.000s      0.000w     10 calls
| JK: AO2USO                        :      0.000u      0.000s      0.000w     10 calls
HF: Form F                          :      0.000u      0.000s      0.000w     10 calls
HF: DIIS                            :      0.117u      0.000s      0.031w     10 calls
HF: Form C                          :      0.050u      0.000s      0.008w     10 calls
HF: Form D                          :      0.000u      0.000s      0.000w     10 calls
Libint2ERI::Libint2ERI              :      0.017u      0.000s      0.010w      9 calls

**************************************************************************************

Host: marcovm

Timers On : Mon May  6 16:07:16 2024
Timers Off: Tue May  7 01:08:05 2024

Wall Time:    32448.91 seconds

                                                       Time (seconds)
Module                                       User      System        Wall        Calls
Total PK formation time             :      0.050u      0.017s      0.012w      2 calls
Libint2ERI::Libint2ERI              :      0.050u      0.017s      0.015w     13 calls
HF: Form core H                     :      0.017u      0.000s      0.001w      2 calls
HF: Form S/X                        :      0.000u      0.000s      0.000w      2 calls
HF: Guess                           :      0.000u      0.000s      0.000w      2 calls
HF: Form G                          :      0.017u      0.000s      0.000w     10 calls
JK: D                               :      0.000u      0.000s      0.000w     10 calls
JK: USO2AO                          :      0.017u      0.000s      0.000w     10 calls
JK: JK                              :      0.000u      0.000s      0.000w     10 calls
PK computes JK                      :      0.000u      0.000s      0.000w     10 calls
JK: AO2USO                          :      0.000u      0.000s      0.000w     10 calls
HF: Form F                          :      0.000u      0.000s      0.000w     10 calls
HF: DIIS                            :      0.100u      0.017s      0.027w     10 calls
HF: Form C                          :      0.000u      0.000s      0.002w     10 calls
HF: Form D                          :      0.000u      0.000s      0.000w     10 calls

--------------------------------------------------------------------------------------
Total PK formation time             :      0.050u      0.017s      0.012w      2 calls
| Libint2ERI::Libint2ERI            :      0.000u      0.017s      0.004w      4 calls
HF: Form core H                     :      0.017u      0.000s      0.001w      2 calls
HF: Form S/X                        :      0.000u      0.000s      0.000w      2 calls
HF: Guess                           :      0.000u      0.000s      0.000w      2 calls
HF: Form G                          :      0.017u      0.000s      0.000w     10 calls
| JK: D                             :      0.000u      0.000s      0.000w     10 calls
| JK: USO2AO                        :      0.017u      0.000s      0.000w     10 calls
| JK: JK                            :      0.000u      0.000s      0.000w     10 calls
| | PK computes JK                  :      0.000u      0.000s      0.000w     10 calls
| JK: AO2USO                        :      0.000u      0.000s      0.000w     10 calls
HF: Form F                          :      0.000u      0.000s      0.000w     10 calls
HF: DIIS                            :      0.100u      0.017s      0.027w     10 calls
HF: Form C                          :      0.000u      0.000s      0.002w     10 calls
HF: Form D                          :      0.000u      0.000s      0.000w     10 calls
Libint2ERI::Libint2ERI              :      0.050u      0.000s      0.011w      9 calls

**************************************************************************************

Host: marcovm

Timers On : Tue May  7 01:09:14 2024
Timers Off: Tue May  7 01:09:55 2024

Wall Time:       40.54 seconds

                                                       Time (seconds)
Module                                       User      System        Wall        Calls
Total PK formation time             :      0.050u      0.000s      0.013w      2 calls
Libint2ERI::Libint2ERI              :      0.017u      0.017s      0.015w     13 calls
HF: Form core H                     :      0.017u      0.000s      0.001w      2 calls
HF: Form S/X                        :      0.000u      0.000s      0.000w      2 calls
HF: Guess                           :      0.000u      0.000s      0.000w      2 calls
HF: Form G                          :      0.000u      0.000s      0.000w     10 calls
JK: D                               :      0.000u      0.000s      0.000w     10 calls
JK: USO2AO                          :      0.000u      0.000s      0.000w     10 calls
JK: JK                              :      0.000u      0.000s      0.000w     10 calls
PK computes JK                      :      0.000u      0.000s      0.000w     10 calls
JK: AO2USO                          :      0.000u      0.000s      0.000w     10 calls
HF: Form F                          :      0.000u      0.000s      0.000w     10 calls
HF: DIIS                            :      0.117u      0.000s      0.026w     10 calls
HF: Form C                          :      0.017u      0.000s      0.002w     10 calls
HF: Form D                          :      0.000u      0.000s      0.000w     10 calls

--------------------------------------------------------------------------------------
Total PK formation time             :      0.050u      0.000s      0.013w      2 calls
| Libint2ERI::Libint2ERI            :      0.017u      0.000s      0.004w      4 calls
HF: Form core H                     :      0.017u      0.000s      0.001w      2 calls
HF: Form S/X                        :      0.000u      0.000s      0.000w      2 calls
HF: Guess                           :      0.000u      0.000s      0.000w      2 calls
HF: Form G                          :      0.000u      0.000s      0.000w     10 calls
| JK: D                             :      0.000u      0.000s      0.000w     10 calls
| JK: USO2AO                        :      0.000u      0.000s      0.000w     10 calls
| JK: JK                            :      0.000u      0.000s      0.000w     10 calls
| | PK computes JK                  :      0.000u      0.000s      0.000w     10 calls
| JK: AO2USO                        :      0.000u      0.000s      0.000w     10 calls
HF: Form F                          :      0.000u      0.000s      0.000w     10 calls
HF: DIIS                            :      0.117u      0.000s      0.026w     10 calls
HF: Form C                          :      0.017u      0.000s      0.002w     10 calls
HF: Form D                          :      0.000u      0.000s      0.000w     10 calls
Libint2ERI::Libint2ERI              :      0.000u      0.017s      0.011w      9 calls

**************************************************************************************

Host: marcovm

Timers On : Tue May  7 01:14:51 2024
Timers Off: Tue May  7 01:15:32 2024

Wall Time:       40.54 seconds

                                                       Time (seconds)
Module                                       User      System        Wall        Calls
Total PK formation time             :      0.033u      0.017s      0.014w      2 calls
Libint2ERI::Libint2ERI              :      0.000u      0.033s      0.017w     13 calls
HF: Form core H                     :      0.033u      0.000s      0.001w      2 calls
HF: Form S/X                        :      0.000u      0.000s      0.000w      2 calls
HF: Guess                           :      0.000u      0.000s      0.000w      2 calls
HF: Form G                          :      0.000u      0.000s      0.000w     10 calls
JK: D                               :      0.000u      0.000s      0.000w     10 calls
JK: USO2AO                          :      0.000u      0.000s      0.000w     10 calls
JK: JK                              :      0.000u      0.000s      0.000w     10 calls
PK computes JK                      :      0.000u      0.000s      0.000w     10 calls
JK: AO2USO                          :      0.000u      0.000s      0.000w     10 calls
HF: Form F                          :      0.000u      0.000s      0.000w     10 calls
HF: DIIS                            :      0.100u      0.000s      0.033w     10 calls
HF: Form C                          :      0.000u      0.000s      0.002w     10 calls
HF: Form D                          :      0.000u      0.000s      0.000w     10 calls

--------------------------------------------------------------------------------------
Total PK formation time             :      0.033u      0.017s      0.014w      2 calls
| Libint2ERI::Libint2ERI            :      0.000u      0.017s      0.006w      4 calls
HF: Form core H                     :      0.033u      0.000s      0.001w      2 calls
HF: Form S/X                        :      0.000u      0.000s      0.000w      2 calls
HF: Guess                           :      0.000u      0.000s      0.000w      2 calls
HF: Form G                          :      0.000u      0.000s      0.000w     10 calls
| JK: D                             :      0.000u      0.000s      0.000w     10 calls
| JK: USO2AO                        :      0.000u      0.000s      0.000w     10 calls
| JK: JK                            :      0.000u      0.000s      0.000w     10 calls
| | PK computes JK                  :      0.000u      0.000s      0.000w     10 calls
| JK: AO2USO                        :      0.000u      0.000s      0.000w     10 calls
HF: Form F                          :      0.000u      0.000s      0.000w     10 calls
HF: DIIS                            :      0.100u      0.000s      0.033w     10 calls
HF: Form C                          :      0.000u      0.000s      0.002w     10 calls
HF: Form D                          :      0.000u      0.000s      0.000w     10 calls
Libint2ERI::Libint2ERI              :      0.000u      0.017s      0.011w      9 calls

**************************************************************************************

Host: marcovm

Timers On : Tue May  7 01:19:18 2024
Timers Off: Tue May  7 01:19:58 2024

Wall Time:       40.06 seconds

                                                       Time (seconds)
Module                                       User      System        Wall        Calls
Total PK formation time             :      0.017u      0.033s      0.013w      2 calls
Libint2ERI::Libint2ERI              :      0.033u      0.017s      0.014w     13 calls
HF: Form core H                     :      0.000u      0.000s      0.002w      2 calls
HF: Form S/X                        :      0.000u      0.000s      0.000w      2 calls
HF: Guess                           :      0.000u      0.000s      0.000w      2 calls
HF: Form G                          :      0.000u      0.000s      0.000w     10 calls
JK: D                               :      0.000u      0.000s      0.000w     10 calls
JK: USO2AO                          :      0.000u      0.000s      0.000w     10 calls
JK: JK                              :      0.000u      0.000s      0.000w     10 calls
PK computes JK                      :      0.000u      0.000s      0.000w     10 calls
JK: AO2USO                          :      0.000u      0.000s      0.000w     10 calls
HF: Form F                          :      0.017u      0.000s      0.001w     10 calls
HF: DIIS                            :      0.117u      0.000s      0.029w     10 calls
HF: Form C                          :      0.017u      0.000s      0.002w     10 calls
HF: Form D                          :      0.000u      0.000s      0.000w     10 calls

--------------------------------------------------------------------------------------
Total PK formation time             :      0.017u      0.033s      0.013w      2 calls
| Libint2ERI::Libint2ERI            :      0.000u      0.017s      0.004w      4 calls
HF: Form core H                     :      0.000u      0.000s      0.002w      2 calls
HF: Form S/X                        :      0.000u      0.000s      0.000w      2 calls
HF: Guess                           :      0.000u      0.000s      0.000w      2 calls
HF: Form G                          :      0.000u      0.000s      0.000w     10 calls
| JK: D                             :      0.000u      0.000s      0.000w     10 calls
| JK: USO2AO                        :      0.000u      0.000s      0.000w     10 calls
| JK: JK                            :      0.000u      0.000s      0.000w     10 calls
| | PK computes JK                  :      0.000u      0.000s      0.000w     10 calls
| JK: AO2USO                        :      0.000u      0.000s      0.000w     10 calls
HF: Form F                          :      0.017u      0.000s      0.001w     10 calls
HF: DIIS                            :      0.117u      0.000s      0.029w     10 calls
HF: Form C                          :      0.017u      0.000s      0.002w     10 calls
HF: Form D                          :      0.000u      0.000s      0.000w     10 calls
Libint2ERI::Libint2ERI              :      0.033u      0.000s      0.010w      9 calls

**************************************************************************************

Host: marcovm

Timers On : Tue May  7 01:20:09 2024
Timers Off: Tue May  7 01:20:49 2024

Wall Time:       40.10 seconds

                                                       Time (seconds)
Module                                       User      System        Wall        Calls
Total PK formation time             :      0.033u      0.017s      0.012w      2 calls
Libint2ERI::Libint2ERI              :      0.033u      0.000s      0.014w     13 calls
HF: Form core H                     :      0.017u      0.000s      0.001w      2 calls
HF: Form S/X                        :      0.000u      0.000s      0.000w      2 calls
HF: Guess                           :      0.000u      0.000s      0.000w      2 calls
HF: Form G                          :      0.000u      0.000s      0.000w     10 calls
JK: D                               :      0.000u      0.000s      0.000w     10 calls
JK: USO2AO                          :      0.000u      0.000s      0.000w     10 calls
JK: JK                              :      0.000u      0.000s      0.000w     10 calls
PK computes JK                      :      0.000u      0.000s      0.000w     10 calls
JK: AO2USO                          :      0.000u      0.000s      0.000w     10 calls
HF: Form F                          :      0.000u      0.000s      0.000w     10 calls
HF: DIIS                            :      0.100u      0.000s      0.026w     10 calls
HF: Form C                          :      0.033u      0.000s      0.002w     10 calls
HF: Form D                          :      0.000u      0.000s      0.000w     10 calls

--------------------------------------------------------------------------------------
Total PK formation time             :      0.033u      0.017s      0.012w      2 calls
| Libint2ERI::Libint2ERI            :      0.017u      0.000s      0.004w      4 calls
HF: Form core H                     :      0.017u      0.000s      0.001w      2 calls
HF: Form S/X                        :      0.000u      0.000s      0.000w      2 calls
HF: Guess                           :      0.000u      0.000s      0.000w      2 calls
HF: Form G                          :      0.000u      0.000s      0.000w     10 calls
| JK: D                             :      0.000u      0.000s      0.000w     10 calls
| JK: USO2AO                        :      0.000u      0.000s      0.000w     10 calls
| JK: JK                            :      0.000u      0.000s      0.000w     10 calls
| | PK computes JK                  :      0.000u      0.000s      0.000w     10 calls
| JK: AO2USO                        :      0.000u      0.000s      0.000w     10 calls
HF: Form F                          :      0.000u      0.000s      0.000w     10 calls
HF: DIIS                            :      0.100u      0.000s      0.026w     10 calls
HF: Form C                          :      0.033u      0.000s      0.002w     10 calls
HF: Form D                          :      0.000u      0.000s      0.000w     10 calls
Libint2ERI::Libint2ERI              :      0.017u      0.000s      0.010w      9 calls

**************************************************************************************

Host: marcovm

Timers On : Tue May  7 01:23:59 2024
Timers Off: Tue May  7 01:24:40 2024

Wall Time:       40.52 seconds

                                                       Time (seconds)
Module                                       User      System        Wall        Calls
Total PK formation time             :      0.050u      0.000s      0.012w      2 calls
Libint2ERI::Libint2ERI              :      0.050u      0.000s      0.014w     13 calls
HF: Form core H                     :      0.000u      0.000s      0.001w      2 calls
HF: Form S/X                        :      0.017u      0.000s      0.000w      2 calls
HF: Guess                           :      0.000u      0.000s      0.000w      2 calls
HF: Form G                          :      0.000u      0.000s      0.000w     10 calls
JK: D                               :      0.000u      0.000s      0.000w     10 calls
JK: USO2AO                          :      0.000u      0.000s      0.000w     10 calls
JK: JK                              :      0.000u      0.000s      0.000w     10 calls
PK computes JK                      :      0.000u      0.000s      0.000w     10 calls
JK: AO2USO                          :      0.000u      0.000s      0.000w     10 calls
HF: Form F                          :      0.000u      0.000s      0.000w     10 calls
HF: DIIS                            :      0.117u      0.000s      0.026w     10 calls
HF: Form C                          :      0.000u      0.000s      0.002w     10 calls
HF: Form D                          :      0.000u      0.000s      0.000w     10 calls

--------------------------------------------------------------------------------------
Total PK formation time             :      0.050u      0.000s      0.012w      2 calls
| Libint2ERI::Libint2ERI            :      0.017u      0.000s      0.004w      4 calls
HF: Form core H                     :      0.000u      0.000s      0.001w      2 calls
HF: Form S/X                        :      0.017u      0.000s      0.000w      2 calls
HF: Guess                           :      0.000u      0.000s      0.000w      2 calls
HF: Form G                          :      0.000u      0.000s      0.000w     10 calls
| JK: D                             :      0.000u      0.000s      0.000w     10 calls
| JK: USO2AO                        :      0.000u      0.000s      0.000w     10 calls
| JK: JK                            :      0.000u      0.000s      0.000w     10 calls
| | PK computes JK                  :      0.000u      0.000s      0.000w     10 calls
| JK: AO2USO                        :      0.000u      0.000s      0.000w     10 calls
HF: Form F                          :      0.000u      0.000s      0.000w     10 calls
HF: DIIS                            :      0.117u      0.000s      0.026w     10 calls
HF: Form C                          :      0.000u      0.000s      0.002w     10 calls
HF: Form D                          :      0.000u      0.000s      0.000w     10 calls
Libint2ERI::Libint2ERI              :      0.033u      0.000s      0.011w      9 calls

**************************************************************************************

Host: marcovm

Timers On : Tue May  7 01:24:48 2024
Timers Off: Tue May  7 01:25:29 2024

Wall Time:       41.25 seconds

                                                       Time (seconds)
Module                                       User      System        Wall        Calls
Total PK formation time             :      0.033u      0.000s      0.013w      2 calls
Libint2ERI::Libint2ERI              :      0.033u      0.000s      0.014w     13 calls
HF: Form core H                     :      0.017u      0.000s      0.001w      2 calls
HF: Form S/X                        :      0.000u      0.000s      0.000w      2 calls
HF: Guess                           :      0.000u      0.000s      0.000w      2 calls
HF: Form G                          :      0.000u      0.000s      0.000w     10 calls
JK: D                               :      0.000u      0.000s      0.000w     10 calls
JK: USO2AO                          :      0.000u      0.000s      0.000w     10 calls
JK: JK                              :      0.000u      0.000s      0.000w     10 calls
PK computes JK                      :      0.000u      0.000s      0.000w     10 calls
JK: AO2USO                          :      0.000u      0.000s      0.000w     10 calls
HF: Form F                          :      0.000u      0.000s      0.000w     10 calls
HF: DIIS                            :      0.117u      0.017s      0.028w     10 calls
HF: Form C                          :      0.033u      0.000s      0.003w     10 calls
HF: Form D                          :      0.000u      0.000s      0.000w     10 calls

--------------------------------------------------------------------------------------
Total PK formation time             :      0.033u      0.000s      0.013w      2 calls
| Libint2ERI::Libint2ERI            :      0.017u      0.000s      0.005w      4 calls
HF: Form core H                     :      0.017u      0.000s      0.001w      2 calls
HF: Form S/X                        :      0.000u      0.000s      0.000w      2 calls
HF: Guess                           :      0.000u      0.000s      0.000w      2 calls
HF: Form G                          :      0.000u      0.000s      0.000w     10 calls
| JK: D                             :      0.000u      0.000s      0.000w     10 calls
| JK: USO2AO                        :      0.000u      0.000s      0.000w     10 calls
| JK: JK                            :      0.000u      0.000s      0.000w     10 calls
| | PK computes JK                  :      0.000u      0.000s      0.000w     10 calls
| JK: AO2USO                        :      0.000u      0.000s      0.000w     10 calls
HF: Form F                          :      0.000u      0.000s      0.000w     10 calls
HF: DIIS                            :      0.117u      0.017s      0.028w     10 calls
HF: Form C                          :      0.033u      0.000s      0.003w     10 calls
HF: Form D                          :      0.000u      0.000s      0.000w     10 calls
Libint2ERI::Libint2ERI              :      0.017u      0.000s      0.010w      9 calls

**************************************************************************************

Host: marcovm

Timers On : Tue May  7 01:25:41 2024
Timers Off: Tue May  7 01:26:22 2024

Wall Time:       40.85 seconds

                                                       Time (seconds)
Module                                       User      System        Wall        Calls
Total PK formation time             :      0.000u      0.000s      0.013w      2 calls
Libint2ERI::Libint2ERI              :      0.000u      0.000s      0.014w     13 calls
HF: Form core H                     :      0.017u      0.000s      0.007w      2 calls
HF: Form S/X                        :      0.000u      0.000s      0.001w      2 calls
HF: Guess                           :      0.000u      0.000s      0.000w      2 calls
HF: Form G                          :      0.000u      0.000s      0.000w     10 calls
JK: D                               :      0.000u      0.000s      0.000w     10 calls
JK: USO2AO                          :      0.000u      0.000s      0.000w     10 calls
JK: JK                              :      0.000u      0.000s      0.000w     10 calls
PK computes JK                      :      0.000u      0.000s      0.000w     10 calls
JK: AO2USO                          :      0.000u      0.000s      0.000w     10 calls
HF: Form F                          :      0.000u      0.000s      0.003w     10 calls
HF: DIIS                            :      0.200u      0.017s      0.051w     10 calls
HF: Form C                          :      0.017u      0.000s      0.003w     10 calls
HF: Form D                          :      0.000u      0.000s      0.000w     10 calls

--------------------------------------------------------------------------------------
Total PK formation time             :      0.000u      0.000s      0.013w      2 calls
| Libint2ERI::Libint2ERI            :      0.000u      0.000s      0.004w      4 calls
HF: Form core H                     :      0.017u      0.000s      0.007w      2 calls
HF: Form S/X                        :      0.000u      0.000s      0.001w      2 calls
HF: Guess                           :      0.000u      0.000s      0.000w      2 calls
HF: Form G                          :      0.000u      0.000s      0.000w     10 calls
| JK: D                             :      0.000u      0.000s      0.000w     10 calls
| JK: USO2AO                        :      0.000u      0.000s      0.000w     10 calls
| JK: JK                            :      0.000u      0.000s      0.000w     10 calls
| | PK computes JK                  :      0.000u      0.000s      0.000w     10 calls
| JK: AO2USO                        :      0.000u      0.000s      0.000w     10 calls
HF: Form F                          :      0.000u      0.000s      0.003w     10 calls
HF: DIIS                            :      0.200u      0.017s      0.051w     10 calls
HF: Form C                          :      0.017u      0.000s      0.003w     10 calls
HF: Form D                          :      0.000u      0.000s      0.000w     10 calls
Libint2ERI::Libint2ERI              :      0.000u      0.000s      0.010w      9 calls

**************************************************************************************

Host: marcovm

Timers On : Tue May  7 01:26:26 2024
Timers Off: Tue May  7 01:27:05 2024

Wall Time:       39.75 seconds

                                                       Time (seconds)
Module                                       User      System        Wall        Calls
Total PK formation time             :      0.050u      0.000s      0.013w      2 calls
Libint2ERI::Libint2ERI              :      0.033u      0.000s      0.018w     13 calls
HF: Form core H                     :      0.000u      0.000s      0.001w      2 calls
HF: Form S/X                        :      0.000u      0.000s      0.000w      2 calls
HF: Guess                           :      0.000u      0.000s      0.000w      2 calls
HF: Form G                          :      0.000u      0.000s      0.000w     10 calls
JK: D                               :      0.000u      0.000s      0.000w     10 calls
JK: USO2AO                          :      0.000u      0.000s      0.000w     10 calls
JK: JK                              :      0.000u      0.000s      0.000w     10 calls
PK computes JK                      :      0.000u      0.000s      0.000w     10 calls
JK: AO2USO                          :      0.000u      0.000s      0.000w     10 calls
HF: Form F                          :      0.000u      0.000s      0.000w     10 calls
HF: DIIS                            :      0.100u      0.000s      0.026w     10 calls
HF: Form C                          :      0.017u      0.000s      0.002w     10 calls
HF: Form D                          :      0.000u      0.000s      0.000w     10 calls

--------------------------------------------------------------------------------------
Total PK formation time             :      0.050u      0.000s      0.013w      2 calls
| Libint2ERI::Libint2ERI            :      0.017u      0.000s      0.004w      4 calls
HF: Form core H                     :      0.000u      0.000s      0.001w      2 calls
HF: Form S/X                        :      0.000u      0.000s      0.000w      2 calls
HF: Guess                           :      0.000u      0.000s      0.000w      2 calls
HF: Form G                          :      0.000u      0.000s      0.000w     10 calls
| JK: D                             :      0.000u      0.000s      0.000w     10 calls
| JK: USO2AO                        :      0.000u      0.000s      0.000w     10 calls
| JK: JK                            :      0.000u      0.000s      0.000w     10 calls
| | PK computes JK                  :      0.000u      0.000s      0.000w     10 calls
| JK: AO2USO                        :      0.000u      0.000s      0.000w     10 calls
HF: Form F                          :      0.000u      0.000s      0.000w     10 calls
HF: DIIS                            :      0.100u      0.000s      0.026w     10 calls
HF: Form C                          :      0.017u      0.000s      0.002w     10 calls
HF: Form D                          :      0.000u      0.000s      0.000w     10 calls
Libint2ERI::Libint2ERI              :      0.017u      0.000s      0.014w      9 calls

**************************************************************************************

Host: marcovm

Timers On : Tue May  7 01:27:13 2024
Timers Off: Tue May  7 01:27:53 2024

Wall Time:       40.07 seconds

                                                       Time (seconds)
Module                                       User      System        Wall        Calls
Total PK formation time             :      0.033u      0.000s      0.013w      2 calls
Libint2ERI::Libint2ERI              :      0.067u      0.000s      0.018w     13 calls
HF: Form core H                     :      0.017u      0.000s      0.001w      2 calls
HF: Form S/X                        :      0.000u      0.000s      0.000w      2 calls
HF: Guess                           :      0.000u      0.000s      0.000w      2 calls
HF: Form G                          :      0.000u      0.000s      0.000w     10 calls
JK: D                               :      0.000u      0.000s      0.000w     10 calls
JK: USO2AO                          :      0.000u      0.000s      0.000w     10 calls
JK: JK                              :      0.000u      0.000s      0.000w     10 calls
PK computes JK                      :      0.000u      0.000s      0.000w     10 calls
JK: AO2USO                          :      0.000u      0.000s      0.000w     10 calls
HF: Form F                          :      0.000u      0.000s      0.000w     10 calls
HF: DIIS                            :      0.100u      0.000s      0.026w     10 calls
HF: Form C                          :      0.017u      0.000s      0.002w     10 calls
HF: Form D                          :      0.000u      0.000s      0.000w     10 calls

--------------------------------------------------------------------------------------
Total PK formation time             :      0.033u      0.000s      0.013w      2 calls
| Libint2ERI::Libint2ERI            :      0.033u      0.000s      0.004w      4 calls
HF: Form core H                     :      0.017u      0.000s      0.001w      2 calls
HF: Form S/X                        :      0.000u      0.000s      0.000w      2 calls
HF: Guess                           :      0.000u      0.000s      0.000w      2 calls
HF: Form G                          :      0.000u      0.000s      0.000w     10 calls
| JK: D                             :      0.000u      0.000s      0.000w     10 calls
| JK: USO2AO                        :      0.000u      0.000s      0.000w     10 calls
| JK: JK                            :      0.000u      0.000s      0.000w     10 calls
| | PK computes JK                  :      0.000u      0.000s      0.000w     10 calls
| JK: AO2USO                        :      0.000u      0.000s      0.000w     10 calls
HF: Form F                          :      0.000u      0.000s      0.000w     10 calls
HF: DIIS                            :      0.100u      0.000s      0.026w     10 calls
HF: Form C                          :      0.017u      0.000s      0.002w     10 calls
HF: Form D                          :      0.000u      0.000s      0.000w     10 calls
Libint2ERI::Libint2ERI              :      0.033u      0.000s      0.013w      9 calls

**************************************************************************************

Host: marcovm

Timers On : Tue May  7 01:36:57 2024
Timers Off: Tue May  7 01:37:08 2024

Wall Time:       10.17 seconds

                                                       Time (seconds)
Module                                       User      System        Wall        Calls
Total PK formation time             :      0.017u      0.000s      0.007w      1 calls
Libint2ERI::Libint2ERI              :      0.017u      0.000s      0.009w      6 calls
HF: Form core H                     :      0.000u      0.000s      0.001w      1 calls
HF: Form S/X                        :      0.000u      0.000s      0.000w      1 calls
HF: Guess                           :      0.000u      0.000s      0.000w      1 calls
HF: Form G                          :      0.000u      0.000s      0.000w      5 calls
JK: D                               :      0.000u      0.000s      0.000w      5 calls
JK: USO2AO                          :      0.000u      0.000s      0.000w      5 calls
JK: JK                              :      0.000u      0.000s      0.000w      5 calls
PK computes JK                      :      0.000u      0.000s      0.000w      5 calls
JK: AO2USO                          :      0.000u      0.000s      0.000w      5 calls
HF: Form F                          :      0.000u      0.000s      0.000w      5 calls
HF: DIIS                            :      0.017u      0.000s      0.013w      5 calls
HF: Form C                          :      0.000u      0.000s      0.001w      5 calls
HF: Form D                          :      0.000u      0.000s      0.000w      5 calls

--------------------------------------------------------------------------------------
Total PK formation time             :      0.017u      0.000s      0.007w      1 calls
| Libint2ERI::Libint2ERI            :      0.000u      0.000s      0.003w      2 calls
HF: Form core H                     :      0.000u      0.000s      0.001w      1 calls
HF: Form S/X                        :      0.000u      0.000s      0.000w      1 calls
HF: Guess                           :      0.000u      0.000s      0.000w      1 calls
HF: Form G                          :      0.000u      0.000s      0.000w      5 calls
| JK: D                             :      0.000u      0.000s      0.000w      5 calls
| JK: USO2AO                        :      0.000u      0.000s      0.000w      5 calls
| JK: JK                            :      0.000u      0.000s      0.000w      5 calls
| | PK computes JK                  :      0.000u      0.000s      0.000w      5 calls
| JK: AO2USO                        :      0.000u      0.000s      0.000w      5 calls
HF: Form F                          :      0.000u      0.000s      0.000w      5 calls
HF: DIIS                            :      0.017u      0.000s      0.013w      5 calls
HF: Form C                          :      0.000u      0.000s      0.001w      5 calls
HF: Form D                          :      0.000u      0.000s      0.000w      5 calls
Libint2ERI::Libint2ERI              :      0.017u      0.000s      0.007w      4 calls

**************************************************************************************

Host: marcovm

Timers On : Tue May  7 01:44:11 2024
Timers Off: Tue May  7 01:44:23 2024

Wall Time:       11.09 seconds

                                                       Time (seconds)
Module                                       User      System        Wall        Calls
Total PK formation time             :      0.033u      0.000s      0.013w      2 calls
Libint2ERI::Libint2ERI              :      0.050u      0.000s      0.014w     13 calls
HF: Form core H                     :      0.000u      0.000s      0.001w      2 calls
HF: Form S/X                        :      0.000u      0.000s      0.000w      2 calls
HF: Guess                           :      0.000u      0.000s      0.000w      2 calls
HF: Form G                          :      0.000u      0.000s      0.000w     10 calls
JK: D                               :      0.000u      0.000s      0.000w     10 calls
JK: USO2AO                          :      0.000u      0.000s      0.000w     10 calls
JK: JK                              :      0.000u      0.000s      0.000w     10 calls
PK computes JK                      :      0.000u      0.000s      0.000w     10 calls
JK: AO2USO                          :      0.000u      0.000s      0.000w     10 calls
HF: Form F                          :      0.000u      0.000s      0.000w     10 calls
HF: DIIS                            :      0.033u      0.000s      0.026w     10 calls
HF: Form C                          :      0.017u      0.000s      0.002w     10 calls
HF: Form D                          :      0.000u      0.000s      0.000w     10 calls

--------------------------------------------------------------------------------------
Total PK formation time             :      0.033u      0.000s      0.013w      2 calls
| Libint2ERI::Libint2ERI            :      0.017u      0.000s      0.004w      4 calls
HF: Form core H                     :      0.000u      0.000s      0.001w      2 calls
HF: Form S/X                        :      0.000u      0.000s      0.000w      2 calls
HF: Guess                           :      0.000u      0.000s      0.000w      2 calls
HF: Form G                          :      0.000u      0.000s      0.000w     10 calls
| JK: D                             :      0.000u      0.000s      0.000w     10 calls
| JK: USO2AO                        :      0.000u      0.000s      0.000w     10 calls
| JK: JK                            :      0.000u      0.000s      0.000w     10 calls
| | PK computes JK                  :      0.000u      0.000s      0.000w     10 calls
| JK: AO2USO                        :      0.000u      0.000s      0.000w     10 calls
HF: Form F                          :      0.000u      0.000s      0.000w     10 calls
HF: DIIS                            :      0.033u      0.000s      0.026w     10 calls
HF: Form C                          :      0.017u      0.000s      0.002w     10 calls
HF: Form D                          :      0.000u      0.000s      0.000w     10 calls
Libint2ERI::Libint2ERI              :      0.033u      0.000s      0.010w      9 calls

**************************************************************************************

Host: marcovm

Timers On : Tue May  7 01:44:54 2024
Timers Off: Tue May  7 01:45:35 2024

Wall Time:       40.69 seconds

                                                       Time (seconds)
Module                                       User      System        Wall        Calls
Total PK formation time             :      0.017u      0.017s      0.013w      2 calls
Libint2ERI::Libint2ERI              :      0.033u      0.017s      0.014w     13 calls
HF: Form core H                     :      0.000u      0.000s      0.001w      2 calls
HF: Form S/X                        :      0.000u      0.000s      0.000w      2 calls
HF: Guess                           :      0.000u      0.000s      0.000w      2 calls
HF: Form G                          :      0.000u      0.000s      0.000w     10 calls
JK: D                               :      0.000u      0.000s      0.000w     10 calls
JK: USO2AO                          :      0.000u      0.000s      0.000w     10 calls
JK: JK                              :      0.000u      0.000s      0.000w     10 calls
PK computes JK                      :      0.000u      0.000s      0.000w     10 calls
JK: AO2USO                          :      0.000u      0.000s      0.000w     10 calls
HF: Form F                          :      0.000u      0.000s      0.000w     10 calls
HF: DIIS                            :      0.067u      0.000s      0.026w     10 calls
HF: Form C                          :      0.000u      0.000s      0.002w     10 calls
HF: Form D                          :      0.000u      0.000s      0.000w     10 calls

--------------------------------------------------------------------------------------
Total PK formation time             :      0.017u      0.017s      0.013w      2 calls
| Libint2ERI::Libint2ERI            :      0.000u      0.017s      0.005w      4 calls
HF: Form core H                     :      0.000u      0.000s      0.001w      2 calls
HF: Form S/X                        :      0.000u      0.000s      0.000w      2 calls
HF: Guess                           :      0.000u      0.000s      0.000w      2 calls
HF: Form G                          :      0.000u      0.000s      0.000w     10 calls
| JK: D                             :      0.000u      0.000s      0.000w     10 calls
| JK: USO2AO                        :      0.000u      0.000s      0.000w     10 calls
| JK: JK                            :      0.000u      0.000s      0.000w     10 calls
| | PK computes JK                  :      0.000u      0.000s      0.000w     10 calls
| JK: AO2USO                        :      0.000u      0.000s      0.000w     10 calls
HF: Form F                          :      0.000u      0.000s      0.000w     10 calls
HF: DIIS                            :      0.067u      0.000s      0.026w     10 calls
HF: Form C                          :      0.000u      0.000s      0.002w     10 calls
HF: Form D                          :      0.000u      0.000s      0.000w     10 calls
Libint2ERI::Libint2ERI              :      0.033u      0.000s      0.009w      9 calls

**************************************************************************************

Host: marcovm

Timers On : Tue May  7 01:45:41 2024
Timers Off: Tue May  7 01:46:21 2024

Wall Time:       40.42 seconds

                                                       Time (seconds)
Module                                       User      System        Wall        Calls
Total PK formation time             :      0.017u      0.000s      0.013w      2 calls
Libint2ERI::Libint2ERI              :      0.050u      0.000s      0.014w     13 calls
HF: Form core H                     :      0.000u      0.000s      0.001w      2 calls
HF: Form S/X                        :      0.000u      0.000s      0.000w      2 calls
HF: Guess                           :      0.000u      0.000s      0.000w      2 calls
HF: Form G                          :      0.000u      0.000s      0.000w     10 calls
JK: D                               :      0.000u      0.000s      0.000w     10 calls
JK: USO2AO                          :      0.000u      0.000s      0.000w     10 calls
JK: JK                              :      0.000u      0.000s      0.000w     10 calls
PK computes JK                      :      0.000u      0.000s      0.000w     10 calls
JK: AO2USO                          :      0.000u      0.000s      0.000w     10 calls
HF: Form F                          :      0.000u      0.000s      0.000w     10 calls
HF: DIIS                            :      0.050u      0.000s      0.026w     10 calls
HF: Form C                          :      0.017u      0.000s      0.002w     10 calls
HF: Form D                          :      0.000u      0.000s      0.000w     10 calls

--------------------------------------------------------------------------------------
Total PK formation time             :      0.017u      0.000s      0.013w      2 calls
| Libint2ERI::Libint2ERI            :      0.017u      0.000s      0.005w      4 calls
HF: Form core H                     :      0.000u      0.000s      0.001w      2 calls
HF: Form S/X                        :      0.000u      0.000s      0.000w      2 calls
HF: Guess                           :      0.000u      0.000s      0.000w      2 calls
HF: Form G                          :      0.000u      0.000s      0.000w     10 calls
| JK: D                             :      0.000u      0.000s      0.000w     10 calls
| JK: USO2AO                        :      0.000u      0.000s      0.000w     10 calls
| JK: JK                            :      0.000u      0.000s      0.000w     10 calls
| | PK computes JK                  :      0.000u      0.000s      0.000w     10 calls
| JK: AO2USO                        :      0.000u      0.000s      0.000w     10 calls
HF: Form F                          :      0.000u      0.000s      0.000w     10 calls
HF: DIIS                            :      0.050u      0.000s      0.026w     10 calls
HF: Form C                          :      0.017u      0.000s      0.002w     10 calls
HF: Form D                          :      0.000u      0.000s      0.000w     10 calls
Libint2ERI::Libint2ERI              :      0.033u      0.000s      0.009w      9 calls

**************************************************************************************

Host: marcovm

Timers On : Tue May  7 01:52:18 2024
Timers Off: Tue May  7 01:52:59 2024

Wall Time:       40.34 seconds

                                                       Time (seconds)
Module                                       User      System        Wall        Calls
Total PK formation time             :      0.017u      0.000s      0.013w      2 calls
Libint2ERI::Libint2ERI              :      0.000u      0.000s      0.016w     13 calls
HF: Form core H                     :      0.000u      0.000s      0.001w      2 calls
HF: Form S/X                        :      0.000u      0.000s      0.000w      2 calls
HF: Guess                           :      0.000u      0.000s      0.000w      2 calls
HF: Form G                          :      0.000u      0.000s      0.000w     10 calls
JK: D                               :      0.000u      0.000s      0.000w     10 calls
JK: USO2AO                          :      0.000u      0.000s      0.000w     10 calls
JK: JK                              :      0.000u      0.000s      0.000w     10 calls
PK computes JK                      :      0.000u      0.000s      0.000w     10 calls
JK: AO2USO                          :      0.000u      0.000s      0.000w     10 calls
HF: Form F                          :      0.000u      0.000s      0.000w     10 calls
HF: DIIS                            :      0.033u      0.017s      0.026w     10 calls
HF: Form C                          :      0.033u      0.000s      0.002w     10 calls
HF: Form D                          :      0.000u      0.000s      0.000w     10 calls

--------------------------------------------------------------------------------------
Total PK formation time             :      0.017u      0.000s      0.013w      2 calls
| Libint2ERI::Libint2ERI            :      0.000u      0.000s      0.005w      4 calls
HF: Form core H                     :      0.000u      0.000s      0.001w      2 calls
HF: Form S/X                        :      0.000u      0.000s      0.000w      2 calls
HF: Guess                           :      0.000u      0.000s      0.000w      2 calls
HF: Form G                          :      0.000u      0.000s      0.000w     10 calls
| JK: D                             :      0.000u      0.000s      0.000w     10 calls
| JK: USO2AO                        :      0.000u      0.000s      0.000w     10 calls
| JK: JK                            :      0.000u      0.000s      0.000w     10 calls
| | PK computes JK                  :      0.000u      0.000s      0.000w     10 calls
| JK: AO2USO                        :      0.000u      0.000s      0.000w     10 calls
HF: Form F                          :      0.000u      0.000s      0.000w     10 calls
HF: DIIS                            :      0.033u      0.017s      0.026w     10 calls
HF: Form C                          :      0.033u      0.000s      0.002w     10 calls
HF: Form D                          :      0.000u      0.000s      0.000w     10 calls
Libint2ERI::Libint2ERI              :      0.000u      0.000s      0.011w      9 calls

**************************************************************************************

Host: marcovm

Timers On : Tue May  7 01:53:26 2024
Timers Off: Tue May  7 01:54:06 2024

Wall Time:       40.45 seconds

                                                       Time (seconds)
Module                                       User      System        Wall        Calls
Total PK formation time             :      0.017u      0.000s      0.013w      2 calls
Libint2ERI::Libint2ERI              :      0.033u      0.000s      0.016w     13 calls
HF: Form core H                     :      0.000u      0.000s      0.001w      2 calls
HF: Form S/X                        :      0.000u      0.000s      0.000w      2 calls
HF: Guess                           :      0.000u      0.000s      0.000w      2 calls
HF: Form G                          :      0.000u      0.000s      0.000w     10 calls
JK: D                               :      0.000u      0.000s      0.000w     10 calls
JK: USO2AO                          :      0.000u      0.000s      0.000w     10 calls
JK: JK                              :      0.000u      0.000s      0.000w     10 calls
PK computes JK                      :      0.000u      0.000s      0.000w     10 calls
JK: AO2USO                          :      0.000u      0.000s      0.000w     10 calls
HF: Form F                          :      0.000u      0.000s      0.000w     10 calls
HF: DIIS                            :      0.050u      0.017s      0.027w     10 calls
HF: Form C                          :      0.000u      0.000s      0.002w     10 calls
HF: Form D                          :      0.000u      0.000s      0.000w     10 calls

--------------------------------------------------------------------------------------
Total PK formation time             :      0.017u      0.000s      0.013w      2 calls
| Libint2ERI::Libint2ERI            :      0.000u      0.000s      0.005w      4 calls
HF: Form core H                     :      0.000u      0.000s      0.001w      2 calls
HF: Form S/X                        :      0.000u      0.000s      0.000w      2 calls
HF: Guess                           :      0.000u      0.000s      0.000w      2 calls
HF: Form G                          :      0.000u      0.000s      0.000w     10 calls
| JK: D                             :      0.000u      0.000s      0.000w     10 calls
| JK: USO2AO                        :      0.000u      0.000s      0.000w     10 calls
| JK: JK                            :      0.000u      0.000s      0.000w     10 calls
| | PK computes JK                  :      0.000u      0.000s      0.000w     10 calls
| JK: AO2USO                        :      0.000u      0.000s      0.000w     10 calls
HF: Form F                          :      0.000u      0.000s      0.000w     10 calls
HF: DIIS                            :      0.050u      0.017s      0.027w     10 calls
HF: Form C                          :      0.000u      0.000s      0.002w     10 calls
HF: Form D                          :      0.000u      0.000s      0.000w     10 calls
Libint2ERI::Libint2ERI              :      0.033u      0.000s      0.011w      9 calls

**************************************************************************************

Host: marcovm

Timers On : Tue May  7 01:54:44 2024
Timers Off: Tue May  7 01:55:25 2024

Wall Time:       40.69 seconds

                                                       Time (seconds)
Module                                       User      System        Wall        Calls
Total PK formation time             :      0.017u      0.000s      0.013w      2 calls
Libint2ERI::Libint2ERI              :      0.017u      0.017s      0.014w     13 calls
HF: Form core H                     :      0.000u      0.000s      0.001w      2 calls
HF: Form S/X                        :      0.017u      0.000s      0.000w      2 calls
HF: Guess                           :      0.000u      0.000s      0.000w      2 calls
HF: Form G                          :      0.000u      0.000s      0.000w     10 calls
JK: D                               :      0.000u      0.000s      0.000w     10 calls
JK: USO2AO                          :      0.000u      0.000s      0.000w     10 calls
JK: JK                              :      0.000u      0.000s      0.000w     10 calls
PK computes JK                      :      0.000u      0.000s      0.000w     10 calls
JK: AO2USO                          :      0.000u      0.000s      0.000w     10 calls
HF: Form F                          :      0.017u      0.000s      0.000w     10 calls
HF: DIIS                            :      0.033u      0.000s      0.027w     10 calls
HF: Form C                          :      0.000u      0.000s      0.002w     10 calls
HF: Form D                          :      0.000u      0.000s      0.000w     10 calls

--------------------------------------------------------------------------------------
Total PK formation time             :      0.017u      0.000s      0.013w      2 calls
| Libint2ERI::Libint2ERI            :      0.000u      0.000s      0.005w      4 calls
HF: Form core H                     :      0.000u      0.000s      0.001w      2 calls
HF: Form S/X                        :      0.017u      0.000s      0.000w      2 calls
HF: Guess                           :      0.000u      0.000s      0.000w      2 calls
HF: Form G                          :      0.000u      0.000s      0.000w     10 calls
| JK: D                             :      0.000u      0.000s      0.000w     10 calls
| JK: USO2AO                        :      0.000u      0.000s      0.000w     10 calls
| JK: JK                            :      0.000u      0.000s      0.000w     10 calls
| | PK computes JK                  :      0.000u      0.000s      0.000w     10 calls
| JK: AO2USO                        :      0.000u      0.000s      0.000w     10 calls
HF: Form F                          :      0.017u      0.000s      0.000w     10 calls
HF: DIIS                            :      0.033u      0.000s      0.027w     10 calls
HF: Form C                          :      0.000u      0.000s      0.002w     10 calls
HF: Form D                          :      0.000u      0.000s      0.000w     10 calls
Libint2ERI::Libint2ERI              :      0.017u      0.017s      0.010w      9 calls

**************************************************************************************

Host: marcovm

Timers On : Tue May  7 19:00:38 2024
Timers Off: Tue May  7 19:01:20 2024

Wall Time:       42.02 seconds

                                                       Time (seconds)
Module                                       User      System        Wall        Calls
Total PK formation time             :      0.000u      0.000s      0.013w      2 calls
Libint2ERI::Libint2ERI              :      0.017u      0.000s      0.014w     13 calls
HF: Form core H                     :      0.017u      0.000s      0.001w      2 calls
HF: Form S/X                        :      0.000u      0.000s      0.000w      2 calls
HF: Guess                           :      0.000u      0.000s      0.000w      2 calls
HF: Form G                          :      0.000u      0.000s      0.000w     10 calls
JK: D                               :      0.000u      0.000s      0.000w     10 calls
JK: USO2AO                          :      0.000u      0.000s      0.000w     10 calls
JK: JK                              :      0.000u      0.000s      0.000w     10 calls
PK computes JK                      :      0.000u      0.000s      0.000w     10 calls
[...]
HF: Form G                          :      0.000u      0.000s      0.001w     10 calls
| JK: D                             :      0.000u      0.000s      0.000w     10 calls
| JK: USO2AO                        :      0.000u      0.000s      0.000w     10 calls
| JK: JK                            :      0.000u      0.000s      0.000w     10 calls
| | PK computes JK                  :      0.000u      0.000s      0.000w     10 calls
| JK: AO2USO                        :      0.000u      0.000s      0.000w     10 calls
HF: Form F                          :      0.033u      0.000s      0.008w     10 calls
HF: DIIS                            :      0.200u      0.000s      0.054w     10 calls
HF: Form C                          :      0.000u      0.000s      0.002w     10 calls
HF: Form D                          :      0.000u      0.000s      0.000w     10 calls
Libint2ERI::Libint2ERI              :      0.017u      0.000s      0.012w      9 calls

**************************************************************************************

Host: marcovm

Timers On : Tue May 21 01:47:14 2024
Timers Off: Tue May 21 01:50:54 2024

Wall Time:      219.80 seconds

                                                       Time (seconds)
Module                                       User      System        Wall        Calls
Total PK formation time             :      0.033u      0.000s      0.014w      2 calls
Libint2ERI::Libint2ERI              :      0.083u      0.000s      0.017w     13 calls
HF: Form core H                     :      0.000u      0.000s      0.002w      2 calls
HF: Form S/X                        :      0.000u      0.000s      0.000w      2 calls
HF: Guess                           :      0.000u      0.000s      0.000w      2 calls
HF: Form G                          :      0.000u      0.000s      0.001w     10 calls
JK: D                               :      0.000u      0.000s      0.000w     10 calls
JK: USO2AO                          :      0.000u      0.000s      0.000w     10 calls
JK: JK                              :      0.000u      0.000s      0.000w     10 calls
PK computes JK                      :      0.000u      0.000s      0.000w     10 calls
JK: AO2USO                          :      0.000u      0.000s      0.000w     10 calls
HF: Form F                          :      0.000u      0.000s      0.000w     10 calls
HF: DIIS                            :      0.117u      0.000s      0.030w     10 calls
HF: Form C                          :      0.017u      0.000s      0.003w     10 calls
HF: Form D                          :      0.000u      0.000s      0.000w     10 calls

--------------------------------------------------------------------------------------
Total PK formation time             :      0.033u      0.000s      0.014w      2 calls
| Libint2ERI::Libint2ERI            :      0.033u      0.000s      0.005w      4 calls
HF: Form core H                     :      0.000u      0.000s      0.002w      2 calls
HF: Form S/X                        :      0.000u      0.000s      0.000w      2 calls
HF: Guess                           :      0.000u      0.000s      0.000w      2 calls
HF: Form G                          :      0.000u      0.000s      0.001w     10 calls
| JK: D                             :      0.000u      0.000s      0.000w     10 calls
| JK: USO2AO                        :      0.000u      0.000s      0.000w     10 calls
| JK: JK                            :      0.000u      0.000s      0.000w     10 calls
| | PK computes JK                  :      0.000u      0.000s      0.000w     10 calls
| JK: AO2USO                        :      0.000u      0.000s      0.000w     10 calls
HF: Form F                          :      0.000u      0.000s      0.000w     10 calls
HF: DIIS                            :      0.117u      0.000s      0.030w     10 calls
HF: Form C                          :      0.017u      0.000s      0.003w     10 calls
HF: Form D                          :      0.000u      0.000s      0.000w     10 calls
Libint2ERI::Libint2ERI              :      0.050u      0.000s      0.012w      9 calls

**************************************************************************************

Host: marcovm

Timers On : Tue May 21 01:53:26 2024
Timers Off: Tue May 21 01:54:12 2024

Wall Time:       46.19 seconds

                                                       Time (seconds)
Module                                       User      System        Wall        Calls
Total PK formation time             :      0.017u      0.000s      0.013w      2 calls
Libint2ERI::Libint2ERI              :      0.017u      0.000s      0.015w     13 calls
HF: Form core H                     :      0.033u      0.000s      0.007w      2 calls
HF: Form S/X                        :      0.000u      0.000s      0.001w      2 calls
HF: Guess                           :      0.000u      0.000s      0.000w      2 calls
HF: Form G                          :      0.000u      0.000s      0.001w     10 calls
JK: D                               :      0.000u      0.000s      0.000w     10 calls
JK: USO2AO                          :      0.000u      0.000s      0.000w     10 calls
JK: JK                              :      0.000u      0.000s      0.000w     10 calls
PK computes JK                      :      0.000u      0.000s      0.000w     10 calls
JK: AO2USO                          :      0.000u      0.000s      0.000w     10 calls
HF: Form F                          :      0.050u      0.000s      0.016w     10 calls
HF: DIIS                            :      0.217u      0.000s      0.042w     10 calls
HF: Form C                          :      0.000u      0.000s      0.003w     10 calls
HF: Form D                          :      0.000u      0.000s      0.000w     10 calls

--------------------------------------------------------------------------------------
Total PK formation time             :      0.017u      0.000s      0.013w      2 calls
| Libint2ERI::Libint2ERI            :      0.000u      0.000s      0.005w      4 calls
HF: Form core H                     :      0.033u      0.000s      0.007w      2 calls
HF: Form S/X                        :      0.000u      0.000s      0.001w      2 calls
HF: Guess                           :      0.000u      0.000s      0.000w      2 calls
HF: Form G                          :      0.000u      0.000s      0.001w     10 calls
| JK: D                             :      0.000u      0.000s      0.000w     10 calls
| JK: USO2AO                        :      0.000u      0.000s      0.000w     10 calls
| JK: JK                            :      0.000u      0.000s      0.000w     10 calls
| | PK computes JK                  :      0.000u      0.000s      0.000w     10 calls
| JK: AO2USO                        :      0.000u      0.000s      0.000w     10 calls
HF: Form F                          :      0.050u      0.000s      0.016w     10 calls
HF: DIIS                            :      0.217u      0.000s      0.042w     10 calls
HF: Form C                          :      0.000u      0.000s      0.003w     10 calls
HF: Form D                          :      0.000u      0.000s      0.000w     10 calls
Libint2ERI::Libint2ERI              :      0.017u      0.000s      0.010w      9 calls

**************************************************************************************

Host: marcovm

Timers On : Tue May 21 01:54:18 2024
Timers Off: Tue May 21 01:55:02 2024

Wall Time:       44.77 seconds

                                                       Time (seconds)
Module                                       User      System        Wall        Calls
Total PK formation time             :      0.000u      0.017s      0.014w      2 calls
Libint2ERI::Libint2ERI              :      0.017u      0.000s      0.016w     13 calls
HF: Form core H                     :      0.033u      0.000s      0.013w      2 calls
HF: Form S/X                        :      0.033u      0.000s      0.005w      2 calls
HF: Guess                           :      0.000u      0.000s      0.000w      2 calls
HF: Form G                          :      0.000u      0.000s      0.001w     10 calls
JK: D                               :      0.000u      0.000s      0.000w     10 calls
JK: USO2AO                          :      0.000u      0.000s      0.000w     10 calls
JK: JK                              :      0.000u      0.000s      0.000w     10 calls
PK computes JK                      :      0.000u      0.000s      0.000w     10 calls
JK: AO2USO                          :      0.000u      0.000s      0.000w     10 calls
HF: Form F                          :      0.000u      0.000s      0.000w     10 calls
HF: DIIS                            :      0.100u      0.000s      0.030w     10 calls
HF: Form C                          :      0.000u      0.000s      0.003w     10 calls
HF: Form D                          :      0.000u      0.000s      0.000w     10 calls

--------------------------------------------------------------------------------------
Total PK formation time             :      0.000u      0.017s      0.014w      2 calls
| Libint2ERI::Libint2ERI            :      0.000u      0.000s      0.005w      4 calls
HF: Form core H                     :      0.033u      0.000s      0.013w      2 calls
HF: Form S/X                        :      0.033u      0.000s      0.005w      2 calls
HF: Guess                           :      0.000u      0.000s      0.000w      2 calls
HF: Form G                          :      0.000u      0.000s      0.001w     10 calls
| JK: D                             :      0.000u      0.000s      0.000w     10 calls
| JK: USO2AO                        :      0.000u      0.000s      0.000w     10 calls
| JK: JK                            :      0.000u      0.000s      0.000w     10 calls
| | PK computes JK                  :      0.000u      0.000s      0.000w     10 calls
| JK: AO2USO                        :      0.000u      0.000s      0.000w     10 calls
HF: Form F                          :      0.000u      0.000s      0.000w     10 calls
HF: DIIS                            :      0.100u      0.000s      0.030w     10 calls
HF: Form C                          :      0.000u      0.000s      0.003w     10 calls
HF: Form D                          :      0.000u      0.000s      0.000w     10 calls
Libint2ERI::Libint2ERI              :      0.017u      0.000s      0.011w      9 calls

**************************************************************************************

Host: marcovm

Timers On : Tue May 21 02:06:36 2024
Timers Off: Tue May 21 02:07:27 2024

Wall Time:       50.58 seconds

                                                       Time (seconds)
Module                                       User      System        Wall        Calls
Total PK formation time             :      0.017u      0.000s      0.019w      2 calls
Libint2ERI::Libint2ERI              :      0.033u      0.000s      0.022w     13 calls
HF: Form core H                     :      0.000u      0.000s      0.002w      2 calls
HF: Form S/X                        :      0.000u      0.017s      0.000w      2 calls
HF: Guess                           :      0.000u      0.000s      0.000w      2 calls
HF: Form G                          :      0.000u      0.000s      0.001w     10 calls
JK: D                               :      0.000u      0.000s      0.000w     10 calls
JK: USO2AO                          :      0.000u      0.000s      0.000w     10 calls
JK: JK                              :      0.000u      0.000s      0.000w     10 calls
PK computes JK                      :      0.000u      0.000s      0.000w     10 calls
JK: AO2USO                          :      0.000u      0.000s      0.000w     10 calls
HF: Form F                          :      0.000u      0.000s      0.000w     10 calls
HF: DIIS                            :      0.117u      0.000s      0.122w     10 calls
HF: Form C                          :      0.017u      0.000s      0.003w     10 calls
HF: Form D                          :      0.000u      0.000s      0.000w     10 calls

--------------------------------------------------------------------------------------
Total PK formation time             :      0.017u      0.000s      0.019w      2 calls
| Libint2ERI::Libint2ERI            :      0.000u      0.000s      0.009w      4 calls
HF: Form core H                     :      0.000u      0.000s      0.002w      2 calls
HF: Form S/X                        :      0.000u      0.017s      0.000w      2 calls
HF: Guess                           :      0.000u      0.000s      0.000w      2 calls
HF: Form G                          :      0.000u      0.000s      0.001w     10 calls
| JK: D                             :      0.000u      0.000s      0.000w     10 calls
| JK: USO2AO                        :      0.000u      0.000s      0.000w     10 calls
| JK: JK                            :      0.000u      0.000s      0.000w     10 calls
| | PK computes JK                  :      0.000u      0.000s      0.000w     10 calls
| JK: AO2USO                        :      0.000u      0.000s      0.000w     10 calls
HF: Form F                          :      0.000u      0.000s      0.000w     10 calls
HF: DIIS                            :      0.117u      0.000s      0.122w     10 calls
HF: Form C                          :      0.017u      0.000s      0.003w     10 calls
HF: Form D                          :      0.000u      0.000s      0.000w     10 calls
Libint2ERI::Libint2ERI              :      0.033u      0.000s      0.013w      9 calls

**************************************************************************************

Host: marcovm

Timers On : Tue May 21 03:04:03 2024
Timers Off: Tue May 21 03:07:51 2024

Wall Time:      228.22 seconds

                                                       Time (seconds)
Module                                       User      System        Wall        Calls
Total PK formation time             :      0.033u      0.000s      0.013w      2 calls
Libint2ERI::Libint2ERI              :      0.017u      0.000s      0.016w     13 calls
HF: Form core H                     :      0.000u      0.000s      0.027w      2 calls
HF: Form S/X                        :      0.000u      0.000s      0.000w      2 calls
HF: Guess                           :      0.000u      0.000s      0.000w      2 calls
HF: Form G                          :      0.000u      0.000s      0.000w     10 calls
JK: D                               :      0.000u      0.000s      0.000w     10 calls
JK: USO2AO                          :      0.000u      0.000s      0.000w     10 calls
JK: JK                              :      0.000u      0.000s      0.000w     10 calls
PK computes JK                      :      0.000u      0.000s      0.000w     10 calls
JK: AO2USO                          :      0.000u      0.000s      0.000w     10 calls
HF: Form F                          :      0.000u      0.000s      0.000w     10 calls
HF: DIIS                            :      0.117u      0.000s      0.027w     10 calls
HF: Form C                          :      0.017u      0.000s      0.002w     10 calls
HF: Form D                          :      0.000u      0.000s      0.000w     10 calls

--------------------------------------------------------------------------------------
Total PK formation time             :      0.033u      0.000s      0.013w      2 calls
| Libint2ERI::Libint2ERI            :      0.017u      0.000s      0.005w      4 calls
HF: Form core H                     :      0.000u      0.000s      0.027w      2 calls
HF: Form S/X                        :      0.000u      0.000s      0.000w      2 calls
HF: Guess                           :      0.000u      0.000s      0.000w      2 calls
HF: Form G                          :      0.000u      0.000s      0.000w     10 calls
| JK: D                             :      0.000u      0.000s      0.000w     10 calls
| JK: USO2AO                        :      0.000u      0.000s      0.000w     10 calls
| JK: JK                            :      0.000u      0.000s      0.000w     10 calls
| | PK computes JK                  :      0.000u      0.000s      0.000w     10 calls
| JK: AO2USO                        :      0.000u      0.000s      0.000w     10 calls
HF: Form F                          :      0.000u      0.000s      0.000w     10 calls
HF: DIIS                            :      0.117u      0.000s      0.027w     10 calls
HF: Form C                          :      0.017u      0.000s      0.002w     10 calls
HF: Form D                          :      0.000u      0.000s      0.000w     10 calls
Libint2ERI::Libint2ERI              :      0.000u      0.000s      0.011w      9 calls

**************************************************************************************

Host: marcovm

Timers On : Tue May 21 03:11:09 2024
Timers Off: Mon May 20 18:15:06 2024

Wall Time:   -32162.81 seconds

                                                       Time (seconds)
Module                                       User      System        Wall        Calls
Total PK formation time             :      0.017u      0.000s      0.014w      2 calls
Libint2ERI::Libint2ERI              :      0.017u      0.000s      0.015w     13 calls
HF: Form core H                     :      0.000u      0.000s      0.002w      2 calls
HF: Form S/X                        :      0.017u      0.000s      0.001w      2 calls
HF: Guess                           :      0.000u      0.000s      0.000w      2 calls
HF: Form G                          :      0.000u      0.000s      0.000w     10 calls
JK: D                               :      0.000u      0.000s      0.000w     10 calls
JK: USO2AO                          :      0.000u      0.000s      0.000w     10 calls
JK: JK                              :      0.000u      0.000s      0.000w     10 calls
PK computes JK                      :      0.000u      0.000s      0.000w     10 calls
JK: AO2USO                          :      0.000u      0.000s      0.000w     10 calls
HF: Form F                          :      0.000u      0.000s      0.000w     10 calls
HF: DIIS                            :      0.083u      0.000s      0.027w     10 calls
HF: Form C                          :      0.017u      0.000s      0.002w     10 calls
HF: Form D                          :      0.000u      0.000s      0.000w     10 calls

--------------------------------------------------------------------------------------
Total PK formation time             :      0.017u      0.000s      0.014w      2 calls
| Libint2ERI::Libint2ERI            :      0.000u      0.000s      0.005w      4 calls
HF: Form core H                     :      0.000u      0.000s      0.002w      2 calls
HF: Form S/X                        :      0.017u      0.000s      0.001w      2 calls
HF: Guess                           :      0.000u      0.000s      0.000w      2 calls
HF: Form G                          :      0.000u      0.000s      0.000w     10 calls
| JK: D                             :      0.000u      0.000s      0.000w     10 calls
| JK: USO2AO                        :      0.000u      0.000s      0.000w     10 calls
| JK: JK                            :      0.000u      0.000s      0.000w     10 calls
| | PK computes JK                  :      0.000u      0.000s      0.000w     10 calls
| JK: AO2USO                        :      0.000u      0.000s      0.000w     10 calls
HF: Form F                          :      0.000u      0.000s      0.000w     10 calls
HF: DIIS                            :      0.083u      0.000s      0.027w     10 calls
HF: Form C                          :      0.017u      0.000s      0.002w     10 calls
HF: Form D                          :      0.000u      0.000s      0.000w     10 calls
Libint2ERI::Libint2ERI              :      0.017u      0.000s      0.010w      9 calls

**************************************************************************************
